LAMMPS data file via write_data, version 23 Jun 2022, timestep = 0

125000 atoms
5 atom types

0 89.25 xlo xhi
0 89.25 ylo yhi
0 178.5 zlo zhi

Masses

1 26.982
2 58.6934
3 51.9961
4 55.845
5 58.9332

Atoms # atomic

1	3	0	0	0
2	2	1.785	1.785	0
3	3	1.785	0	1.785
4	4	0	1.785	1.785
5	5	3.57	0	0
6	4	5.355	1.785	0
7	5	5.355	0	1.785
8	3	3.57	1.785	1.785
9	1	7.14	0	0
10	3	8.925	1.785	0
11	4	8.925	0	1.785
12	1	7.14	1.785	1.785
13	2	10.71	0	0
14	3	12.495	1.785	0
15	3	12.495	0	1.785
16	5	10.71	1.785	1.785
17	5	14.28	0	0
18	5	16.065	1.785	0
19	5	16.065	0	1.785
20	3	14.28	1.785	1.785
21	5	17.85	0	0
22	5	19.635	1.785	0
23	2	19.635	0	1.785
24	3	17.85	1.785	1.785
25	5	21.42	0	0
26	2	23.205	1.785	0
27	2	23.205	0	1.785
28	2	21.42	1.785	1.785
29	3	24.99	0	0
30	5	26.775	1.785	0
31	5	26.775	0	1.785
32	2	24.99	1.785	1.785
33	4	28.56	0	0
34	4	30.345	1.785	0
35	3	30.345	0	1.785
36	2	28.56	1.785	1.785
37	2	32.13	0	0
38	1	33.915	1.785	0
39	4	33.915	0	1.785
40	4	32.13	1.785	1.785
41	5	35.7	0	0
42	3	37.485	1.785	0
43	5	37.485	0	1.785
44	5	35.7	1.785	1.785
45	5	39.27	0	0
46	1	41.055	1.785	0
47	4	41.055	0	1.785
48	4	39.27	1.785	1.785
49	2	42.84	0	0
50	5	44.625	1.785	0
51	4	44.625	0	1.785
52	3	42.84	1.785	1.785
53	2	46.41	0	0
54	3	48.195	1.785	0
55	3	48.195	0	1.785
56	5	46.41	1.785	1.785
57	5	49.98	0	0
58	5	51.765	1.785	0
59	4	51.765	0	1.785
60	2	49.98	1.785	1.785
61	1	53.55	0	0
62	2	55.335	1.785	0
63	3	55.335	0	1.785
64	4	53.55	1.785	1.785
65	2	57.12	0	0
66	3	58.905	1.785	0
67	3	58.905	0	1.785
68	4	57.12	1.785	1.785
69	2	60.69	0	0
70	2	62.475	1.785	0
71	5	62.475	0	1.785
72	2	60.69	1.785	1.785
73	2	64.26	0	0
74	5	66.045	1.785	0
75	3	66.045	0	1.785
76	3	64.26	1.785	1.785
77	3	67.83	0	0
78	5	69.615	1.785	0
79	3	69.615	0	1.785
80	2	67.83	1.785	1.785
81	3	71.4	0	0
82	2	73.185	1.785	0
83	5	73.185	0	1.785
84	2	71.4	1.785	1.785
85	2	74.97	0	0
86	4	76.755	1.785	0
87	4	76.755	0	1.785
88	4	74.97	1.785	1.785
89	5	78.54	0	0
90	5	80.325	1.785	0
91	4	80.325	0	1.785
92	5	78.54	1.785	1.785
93	3	82.11	0	0
94	5	83.895	1.785	0
95	1	83.895	0	1.785
96	2	82.11	1.785	1.785
97	3	85.68	0	0
98	4	87.465	1.785	0
99	5	87.465	0	1.785
100	1	85.68	1.785	1.785
101	5	0	3.57	0
102	4	1.785	5.355	0
103	3	1.785	3.57	1.785
104	4	0	5.355	1.785
105	5	3.57	3.57	0
106	3	5.355	5.355	0
107	4	5.355	3.57	1.785
108	3	3.57	5.355	1.785
109	2	7.14	3.57	0
110	3	8.925	5.355	0
111	1	8.925	3.57	1.785
112	2	7.14	5.355	1.785
113	3	10.71	3.57	0
114	2	12.495	5.355	0
115	3	12.495	3.57	1.785
116	3	10.71	5.355	1.785
117	5	14.28	3.57	0
118	3	16.065	5.355	0
119	5	16.065	3.57	1.785
120	5	14.28	5.355	1.785
121	2	17.85	3.57	0
122	3	19.635	5.355	0
123	3	19.635	3.57	1.785
124	2	17.85	5.355	1.785
125	5	21.42	3.57	0
126	4	23.205	5.355	0
127	1	23.205	3.57	1.785
128	3	21.42	5.355	1.785
129	4	24.99	3.57	0
130	2	26.775	5.355	0
131	4	26.775	3.57	1.785
132	2	24.99	5.355	1.785
133	5	28.56	3.57	0
134	1	30.345	5.355	0
135	2	30.345	3.57	1.785
136	1	28.56	5.355	1.785
137	4	32.13	3.57	0
138	3	33.915	5.355	0
139	2	33.915	3.57	1.785
140	2	32.13	5.355	1.785
141	5	35.7	3.57	0
142	2	37.485	5.355	0
143	3	37.485	3.57	1.785
144	3	35.7	5.355	1.785
145	2	39.27	3.57	0
146	4	41.055	5.355	0
147	4	41.055	3.57	1.785
148	4	39.27	5.355	1.785
149	1	42.84	3.57	0
150	4	44.625	5.355	0
151	5	44.625	3.57	1.785
152	3	42.84	5.355	1.785
153	4	46.41	3.57	0
154	5	48.195	5.355	0
155	2	48.195	3.57	1.785
156	3	46.41	5.355	1.785
157	3	49.98	3.57	0
158	3	51.765	5.355	0
159	4	51.765	3.57	1.785
160	4	49.98	5.355	1.785
161	5	53.55	3.57	0
162	4	55.335	5.355	0
163	3	55.335	3.57	1.785
164	2	53.55	5.355	1.785
165	2	57.12	3.57	0
166	5	58.905	5.355	0
167	2	58.905	3.57	1.785
168	3	57.12	5.355	1.785
169	4	60.69	3.57	0
170	5	62.475	5.355	0
171	2	62.475	3.57	1.785
172	3	60.69	5.355	1.785
173	5	64.26	3.57	0
174	3	66.045	5.355	0
175	4	66.045	3.57	1.785
176	4	64.26	5.355	1.785
177	3	67.83	3.57	0
178	3	69.615	5.355	0
179	3	69.615	3.57	1.785
180	3	67.83	5.355	1.785
181	3	71.4	3.57	0
182	4	73.185	5.355	0
183	3	73.185	3.57	1.785
184	2	71.4	5.355	1.785
185	5	74.97	3.57	0
186	4	76.755	5.355	0
187	4	76.755	3.57	1.785
188	5	74.97	5.355	1.785
189	2	78.54	3.57	0
190	4	80.325	5.355	0
191	2	80.325	3.57	1.785
192	3	78.54	5.355	1.785
193	4	82.11	3.57	0
194	3	83.895	5.355	0
195	5	83.895	3.57	1.785
196	5	82.11	5.355	1.785
197	3	85.68	3.57	0
198	2	87.465	5.355	0
199	4	87.465	3.57	1.785
200	2	85.68	5.355	1.785
201	3	0	7.14	0
202	4	1.785	8.925	0
203	3	1.785	7.14	1.785
204	5	0	8.925	1.785
205	5	3.57	7.14	0
206	2	5.355	8.925	0
207	4	5.355	7.14	1.785
208	2	3.57	8.925	1.785
209	4	7.14	7.14	0
210	5	8.925	8.925	0
211	3	8.925	7.14	1.785
212	4	7.14	8.925	1.785
213	1	10.71	7.14	0
214	2	12.495	8.925	0
215	5	12.495	7.14	1.785
216	5	10.71	8.925	1.785
217	5	14.28	7.14	0
218	3	16.065	8.925	0
219	2	16.065	7.14	1.785
220	5	14.28	8.925	1.785
221	4	17.85	7.14	0
222	3	19.635	8.925	0
223	3	19.635	7.14	1.785
224	2	17.85	8.925	1.785
225	4	21.42	7.14	0
226	2	23.205	8.925	0
227	5	23.205	7.14	1.785
228	3	21.42	8.925	1.785
229	2	24.99	7.14	0
230	1	26.775	8.925	0
231	3	26.775	7.14	1.785
232	4	24.99	8.925	1.785
233	4	28.56	7.14	0
234	4	30.345	8.925	0
235	4	30.345	7.14	1.785
236	2	28.56	8.925	1.785
237	2	32.13	7.14	0
238	4	33.915	8.925	0
239	2	33.915	7.14	1.785
240	4	32.13	8.925	1.785
241	3	35.7	7.14	0
242	2	37.485	8.925	0
243	5	37.485	7.14	1.785
244	5	35.7	8.925	1.785
245	2	39.27	7.14	0
246	5	41.055	8.925	0
247	3	41.055	7.14	1.785
248	5	39.27	8.925	1.785
249	4	42.84	7.14	0
250	2	44.625	8.925	0
251	3	44.625	7.14	1.785
252	4	42.84	8.925	1.785
253	3	46.41	7.14	0
254	3	48.195	8.925	0
255	3	48.195	7.14	1.785
256	5	46.41	8.925	1.785
257	5	49.98	7.14	0
258	4	51.765	8.925	0
259	4	51.765	7.14	1.785
260	4	49.98	8.925	1.785
261	5	53.55	7.14	0
262	4	55.335	8.925	0
263	4	55.335	7.14	1.785
264	1	53.55	8.925	1.785
265	3	57.12	7.14	0
266	2	58.905	8.925	0
267	2	58.905	7.14	1.785
268	3	57.12	8.925	1.785
269	4	60.69	7.14	0
270	3	62.475	8.925	0
271	3	62.475	7.14	1.785
272	3	60.69	8.925	1.785
273	4	64.26	7.14	0
274	4	66.045	8.925	0
275	4	66.045	7.14	1.785
276	2	64.26	8.925	1.785
277	3	67.83	7.14	0
278	5	69.615	8.925	0
279	5	69.615	7.14	1.785
280	2	67.83	8.925	1.785
281	4	71.4	7.14	0
282	5	73.185	8.925	0
283	3	73.185	7.14	1.785
284	5	71.4	8.925	1.785
285	5	74.97	7.14	0
286	3	76.755	8.925	0
287	5	76.755	7.14	1.785
288	4	74.97	8.925	1.785
289	2	78.54	7.14	0
290	2	80.325	8.925	0
291	2	80.325	7.14	1.785
292	5	78.54	8.925	1.785
293	5	82.11	7.14	0
294	4	83.895	8.925	0
295	2	83.895	7.14	1.785
296	4	82.11	8.925	1.785
297	4	85.68	7.14	0
298	5	87.465	8.925	0
299	3	87.465	7.14	1.785
300	5	85.68	8.925	1.785
301	4	0	10.71	0
302	3	1.785	12.495	0
303	2	1.785	10.71	1.785
304	2	0	12.495	1.785
305	2	3.57	10.71	0
306	4	5.355	12.495	0
307	4	5.355	10.71	1.785
308	5	3.57	12.495	1.785
309	2	7.14	10.71	0
310	3	8.925	12.495	0
311	3	8.925	10.71	1.785
312	5	7.14	12.495	1.785
313	4	10.71	10.71	0
314	5	12.495	12.495	0
315	5	12.495	10.71	1.785
316	2	10.71	12.495	1.785
317	5	14.28	10.71	0
318	4	16.065	12.495	0
319	2	16.065	10.71	1.785
320	2	14.28	12.495	1.785
321	5	17.85	10.71	0
322	5	19.635	12.495	0
323	4	19.635	10.71	1.785
324	4	17.85	12.495	1.785
325	1	21.42	10.71	0
326	3	23.205	12.495	0
327	3	23.205	10.71	1.785
328	3	21.42	12.495	1.785
329	5	24.99	10.71	0
330	3	26.775	12.495	0
331	5	26.775	10.71	1.785
332	2	24.99	12.495	1.785
333	5	28.56	10.71	0
334	2	30.345	12.495	0
335	3	30.345	10.71	1.785
336	5	28.56	12.495	1.785
337	5	32.13	10.71	0
338	5	33.915	12.495	0
339	4	33.915	10.71	1.785
340	3	32.13	12.495	1.785
341	3	35.7	10.71	0
342	1	37.485	12.495	0
343	3	37.485	10.71	1.785
344	4	35.7	12.495	1.785
345	3	39.27	10.71	0
346	4	41.055	12.495	0
347	5	41.055	10.71	1.785
348	2	39.27	12.495	1.785
349	5	42.84	10.71	0
350	2	44.625	12.495	0
351	3	44.625	10.71	1.785
352	4	42.84	12.495	1.785
353	2	46.41	10.71	0
354	4	48.195	12.495	0
355	5	48.195	10.71	1.785
356	4	46.41	12.495	1.785
357	4	49.98	10.71	0
358	4	51.765	12.495	0
359	5	51.765	10.71	1.785
360	2	49.98	12.495	1.785
361	2	53.55	10.71	0
362	2	55.335	12.495	0
363	5	55.335	10.71	1.785
364	5	53.55	12.495	1.785
365	3	57.12	10.71	0
366	1	58.905	12.495	0
367	3	58.905	10.71	1.785
368	4	57.12	12.495	1.785
369	4	60.69	10.71	0
370	5	62.475	12.495	0
371	4	62.475	10.71	1.785
372	3	60.69	12.495	1.785
373	5	64.26	10.71	0
374	2	66.045	12.495	0
375	5	66.045	10.71	1.785
376	3	64.26	12.495	1.785
377	2	67.83	10.71	0
378	5	69.615	12.495	0
379	5	69.615	10.71	1.785
380	3	67.83	12.495	1.785
381	5	71.4	10.71	0
382	5	73.185	12.495	0
383	5	73.185	10.71	1.785
384	5	71.4	12.495	1.785
385	5	74.97	10.71	0
386	3	76.755	12.495	0
387	2	76.755	10.71	1.785
388	4	74.97	12.495	1.785
389	3	78.54	10.71	0
390	2	80.325	12.495	0
391	4	80.325	10.71	1.785
392	5	78.54	12.495	1.785
393	3	82.11	10.71	0
394	5	83.895	12.495	0
395	5	83.895	10.71	1.785
396	3	82.11	12.495	1.785
397	2	85.68	10.71	0
398	4	87.465	12.495	0
399	3	87.465	10.71	1.785
400	2	85.68	12.495	1.785
401	3	0	14.28	0
402	2	1.785	16.065	0
403	4	1.785	14.28	1.785
404	3	0	16.065	1.785
405	5	3.57	14.28	0
406	4	5.355	16.065	0
407	1	5.355	14.28	1.785
408	5	3.57	16.065	1.785
409	3	7.14	14.28	0
410	4	8.925	16.065	0
411	3	8.925	14.28	1.785
412	5	7.14	16.065	1.785
413	1	10.71	14.28	0
414	2	12.495	16.065	0
415	4	12.495	14.28	1.785
416	4	10.71	16.065	1.785
417	2	14.28	14.28	0
418	2	16.065	16.065	0
419	2	16.065	14.28	1.785
420	4	14.28	16.065	1.785
421	5	17.85	14.28	0
422	4	19.635	16.065	0
423	2	19.635	14.28	1.785
424	5	17.85	16.065	1.785
425	4	21.42	14.28	0
426	4	23.205	16.065	0
427	3	23.205	14.28	1.785
428	2	21.42	16.065	1.785
429	1	24.99	14.28	0
430	3	26.775	16.065	0
431	4	26.775	14.28	1.785
432	5	24.99	16.065	1.785
433	5	28.56	14.28	0
434	3	30.345	16.065	0
435	4	30.345	14.28	1.785
436	3	28.56	16.065	1.785
437	3	32.13	14.28	0
438	5	33.915	16.065	0
439	5	33.915	14.28	1.785
440	3	32.13	16.065	1.785
441	5	35.7	14.28	0
442	4	37.485	16.065	0
443	1	37.485	14.28	1.785
444	5	35.7	16.065	1.785
445	1	39.27	14.28	0
446	5	41.055	16.065	0
447	5	41.055	14.28	1.785
448	5	39.27	16.065	1.785
449	3	42.84	14.28	0
450	2	44.625	16.065	0
451	3	44.625	14.28	1.785
452	4	42.84	16.065	1.785
453	5	46.41	14.28	0
454	4	48.195	16.065	0
455	2	48.195	14.28	1.785
456	2	46.41	16.065	1.785
457	5	49.98	14.28	0
458	3	51.765	16.065	0
459	2	51.765	14.28	1.785
460	4	49.98	16.065	1.785
461	4	53.55	14.28	0
462	1	55.335	16.065	0
463	2	55.335	14.28	1.785
464	3	53.55	16.065	1.785
465	5	57.12	14.28	0
466	1	58.905	16.065	0
467	4	58.905	14.28	1.785
468	5	57.12	16.065	1.785
469	3	60.69	14.28	0
470	3	62.475	16.065	0
471	3	62.475	14.28	1.785
472	3	60.69	16.065	1.785
473	2	64.26	14.28	0
474	5	66.045	16.065	0
475	4	66.045	14.28	1.785
476	3	64.26	16.065	1.785
477	2	67.83	14.28	0
478	4	69.615	16.065	0
479	5	69.615	14.28	1.785
480	5	67.83	16.065	1.785
481	5	71.4	14.28	0
482	4	73.185	16.065	0
483	3	73.185	14.28	1.785
484	4	71.4	16.065	1.785
485	2	74.97	14.28	0
486	4	76.755	16.065	0
487	5	76.755	14.28	1.785
488	2	74.97	16.065	1.785
489	4	78.54	14.28	0
490	2	80.325	16.065	0
491	2	80.325	14.28	1.785
492	2	78.54	16.065	1.785
493	5	82.11	14.28	0
494	1	83.895	16.065	0
495	5	83.895	14.28	1.785
496	2	82.11	16.065	1.785
497	2	85.68	14.28	0
498	5	87.465	16.065	0
499	5	87.465	14.28	1.785
500	3	85.68	16.065	1.785
501	2	0	17.85	0
502	3	1.785	19.635	0
503	3	1.785	17.85	1.785
504	3	0	19.635	1.785
505	3	3.57	17.85	0
506	3	5.355	19.635	0
507	3	5.355	17.85	1.785
508	2	3.57	19.635	1.785
509	5	7.14	17.85	0
510	2	8.925	19.635	0
511	5	8.925	17.85	1.785
512	5	7.14	19.635	1.785
513	5	10.71	17.85	0
514	5	12.495	19.635	0
515	4	12.495	17.85	1.785
516	3	10.71	19.635	1.785
517	1	14.28	17.85	0
518	3	16.065	19.635	0
519	5	16.065	17.85	1.785
520	3	14.28	19.635	1.785
521	4	17.85	17.85	0
522	2	19.635	19.635	0
523	1	19.635	17.85	1.785
524	3	17.85	19.635	1.785
525	4	21.42	17.85	0
526	3	23.205	19.635	0
527	2	23.205	17.85	1.785
528	4	21.42	19.635	1.785
529	3	24.99	17.85	0
530	4	26.775	19.635	0
531	2	26.775	17.85	1.785
532	5	24.99	19.635	1.785
533	2	28.56	17.85	0
534	5	30.345	19.635	0
535	2	30.345	17.85	1.785
536	5	28.56	19.635	1.785
537	3	32.13	17.85	0
538	3	33.915	19.635	0
539	5	33.915	17.85	1.785
540	4	32.13	19.635	1.785
541	5	35.7	17.85	0
542	3	37.485	19.635	0
543	5	37.485	17.85	1.785
544	5	35.7	19.635	1.785
545	3	39.27	17.85	0
546	5	41.055	19.635	0
547	3	41.055	17.85	1.785
548	3	39.27	19.635	1.785
549	5	42.84	17.85	0
550	1	44.625	19.635	0
551	5	44.625	17.85	1.785
552	2	42.84	19.635	1.785
553	4	46.41	17.85	0
554	5	48.195	19.635	0
555	3	48.195	17.85	1.785
556	3	46.41	19.635	1.785
557	5	49.98	17.85	0
558	2	51.765	19.635	0
559	3	51.765	17.85	1.785
560	3	49.98	19.635	1.785
561	2	53.55	17.85	0
562	5	55.335	19.635	0
563	4	55.335	17.85	1.785
564	1	53.55	19.635	1.785
565	5	57.12	17.85	0
566	2	58.905	19.635	0
567	4	58.905	17.85	1.785
568	3	57.12	19.635	1.785
569	5	60.69	17.85	0
570	2	62.475	19.635	0
571	4	62.475	17.85	1.785
572	4	60.69	19.635	1.785
573	1	64.26	17.85	0
574	4	66.045	19.635	0
575	2	66.045	17.85	1.785
576	3	64.26	19.635	1.785
577	5	67.83	17.85	0
578	3	69.615	19.635	0
579	3	69.615	17.85	1.785
580	4	67.83	19.635	1.785
581	3	71.4	17.85	0
582	2	73.185	19.635	0
583	2	73.185	17.85	1.785
584	4	71.4	19.635	1.785
585	4	74.97	17.85	0
586	4	76.755	19.635	0
587	4	76.755	17.85	1.785
588	1	74.97	19.635	1.785
589	5	78.54	17.85	0
590	5	80.325	19.635	0
591	2	80.325	17.85	1.785
592	2	78.54	19.635	1.785
593	2	82.11	17.85	0
594	2	83.895	19.635	0
595	3	83.895	17.85	1.785
596	4	82.11	19.635	1.785
597	4	85.68	17.85	0
598	5	87.465	19.635	0
599	3	87.465	17.85	1.785
600	2	85.68	19.635	1.785
601	2	0	21.42	0
602	4	1.785	23.205	0
603	2	1.785	21.42	1.785
604	5	0	23.205	1.785
605	4	3.57	21.42	0
606	1	5.355	23.205	0
607	4	5.355	21.42	1.785
608	4	3.57	23.205	1.785
609	2	7.14	21.42	0
610	3	8.925	23.205	0
611	2	8.925	21.42	1.785
612	4	7.14	23.205	1.785
613	5	10.71	21.42	0
614	4	12.495	23.205	0
615	4	12.495	21.42	1.785
616	2	10.71	23.205	1.785
617	4	14.28	21.42	0
618	4	16.065	23.205	0
619	3	16.065	21.42	1.785
620	4	14.28	23.205	1.785
621	4	17.85	21.42	0
622	2	19.635	23.205	0
623	2	19.635	21.42	1.785
624	3	17.85	23.205	1.785
625	5	21.42	21.42	0
626	4	23.205	23.205	0
627	5	23.205	21.42	1.785
628	5	21.42	23.205	1.785
629	5	24.99	21.42	0
630	5	26.775	23.205	0
631	4	26.775	21.42	1.785
632	2	24.99	23.205	1.785
633	3	28.56	21.42	0
634	3	30.345	23.205	0
635	5	30.345	21.42	1.785
636	4	28.56	23.205	1.785
637	4	32.13	21.42	0
638	5	33.915	23.205	0
639	1	33.915	21.42	1.785
640	3	32.13	23.205	1.785
641	5	35.7	21.42	0
642	4	37.485	23.205	0
643	4	37.485	21.42	1.785
644	2	35.7	23.205	1.785
645	4	39.27	21.42	0
646	3	41.055	23.205	0
647	2	41.055	21.42	1.785
648	2	39.27	23.205	1.785
649	2	42.84	21.42	0
650	3	44.625	23.205	0
651	3	44.625	21.42	1.785
652	1	42.84	23.205	1.785
653	4	46.41	21.42	0
654	2	48.195	23.205	0
655	2	48.195	21.42	1.785
656	2	46.41	23.205	1.785
657	3	49.98	21.42	0
658	2	51.765	23.205	0
659	3	51.765	21.42	1.785
660	2	49.98	23.205	1.785
661	1	53.55	21.42	0
662	3	55.335	23.205	0
663	4	55.335	21.42	1.785
664	1	53.55	23.205	1.785
665	4	57.12	21.42	0
666	2	58.905	23.205	0
667	4	58.905	21.42	1.785
668	2	57.12	23.205	1.785
669	4	60.69	21.42	0
670	5	62.475	23.205	0
671	4	62.475	21.42	1.785
672	2	60.69	23.205	1.785
673	4	64.26	21.42	0
674	2	66.045	23.205	0
675	4	66.045	21.42	1.785
676	5	64.26	23.205	1.785
677	5	67.83	21.42	0
678	2	69.615	23.205	0
679	3	69.615	21.42	1.785
680	2	67.83	23.205	1.785
681	3	71.4	21.42	0
682	5	73.185	23.205	0
683	1	73.185	21.42	1.785
684	3	71.4	23.205	1.785
685	4	74.97	21.42	0
686	4	76.755	23.205	0
687	2	76.755	21.42	1.785
688	4	74.97	23.205	1.785
689	4	78.54	21.42	0
690	3	80.325	23.205	0
691	2	80.325	21.42	1.785
692	4	78.54	23.205	1.785
693	3	82.11	21.42	0
694	4	83.895	23.205	0
695	1	83.895	21.42	1.785
696	5	82.11	23.205	1.785
697	5	85.68	21.42	0
698	3	87.465	23.205	0
699	4	87.465	21.42	1.785
700	1	85.68	23.205	1.785
701	5	0	24.99	0
702	5	1.785	26.775	0
703	3	1.785	24.99	1.785
704	3	0	26.775	1.785
705	4	3.57	24.99	0
706	5	5.355	26.775	0
707	5	5.355	24.99	1.785
708	5	3.57	26.775	1.785
709	2	7.14	24.99	0
710	4	8.925	26.775	0
711	3	8.925	24.99	1.785
712	3	7.14	26.775	1.785
713	2	10.71	24.99	0
714	4	12.495	26.775	0
715	2	12.495	24.99	1.785
716	4	10.71	26.775	1.785
717	5	14.28	24.99	0
718	3	16.065	26.775	0
719	3	16.065	24.99	1.785
720	2	14.28	26.775	1.785
721	3	17.85	24.99	0
722	4	19.635	26.775	0
723	3	19.635	24.99	1.785
724	4	17.85	26.775	1.785
725	4	21.42	24.99	0
726	4	23.205	26.775	0
727	4	23.205	24.99	1.785
728	3	21.42	26.775	1.785
729	1	24.99	24.99	0
730	4	26.775	26.775	0
731	5	26.775	24.99	1.785
732	4	24.99	26.775	1.785
733	5	28.56	24.99	0
734	3	30.345	26.775	0
735	4	30.345	24.99	1.785
736	5	28.56	26.775	1.785
737	2	32.13	24.99	0
738	3	33.915	26.775	0
739	5	33.915	24.99	1.785
740	3	32.13	26.775	1.785
741	5	35.7	24.99	0
742	4	37.485	26.775	0
743	2	37.485	24.99	1.785
744	3	35.7	26.775	1.785
745	2	39.27	24.99	0
746	4	41.055	26.775	0
747	5	41.055	24.99	1.785
748	5	39.27	26.775	1.785
749	5	42.84	24.99	0
750	2	44.625	26.775	0
751	3	44.625	24.99	1.785
752	2	42.84	26.775	1.785
753	3	46.41	24.99	0
754	2	48.195	26.775	0
755	2	48.195	24.99	1.785
756	2	46.41	26.775	1.785
757	4	49.98	24.99	0
758	5	51.765	26.775	0
759	2	51.765	24.99	1.785
760	2	49.98	26.775	1.785
761	3	53.55	24.99	0
762	3	55.335	26.775	0
763	2	55.335	24.99	1.785
764	2	53.55	26.775	1.785
765	5	57.12	24.99	0
766	5	58.905	26.775	0
767	2	58.905	24.99	1.785
768	2	57.12	26.775	1.785
769	4	60.69	24.99	0
770	5	62.475	26.775	0
771	2	62.475	24.99	1.785
772	4	60.69	26.775	1.785
773	2	64.26	24.99	0
774	1	66.045	26.775	0
775	4	66.045	24.99	1.785
776	2	64.26	26.775	1.785
777	2	67.83	24.99	0
778	4	69.615	26.775	0
779	3	69.615	24.99	1.785
780	4	67.83	26.775	1.785
781	4	71.4	24.99	0
782	2	73.185	26.775	0
783	3	73.185	24.99	1.785
784	4	71.4	26.775	1.785
785	5	74.97	24.99	0
786	3	76.755	26.775	0
787	5	76.755	24.99	1.785
788	5	74.97	26.775	1.785
789	2	78.54	24.99	0
790	2	80.325	26.775	0
791	3	80.325	24.99	1.785
792	4	78.54	26.775	1.785
793	4	82.11	24.99	0
794	5	83.895	26.775	0
795	4	83.895	24.99	1.785
796	4	82.11	26.775	1.785
797	2	85.68	24.99	0
798	3	87.465	26.775	0
799	2	87.465	24.99	1.785
800	2	85.68	26.775	1.785
801	2	0	28.56	0
802	3	1.785	30.345	0
803	3	1.785	28.56	1.785
804	3	0	30.345	1.785
805	1	3.57	28.56	0
806	2	5.355	30.345	0
807	3	5.355	28.56	1.785
808	5	3.57	30.345	1.785
809	5	7.14	28.56	0
810	5	8.925	30.345	0
811	5	8.925	28.56	1.785
812	3	7.14	30.345	1.785
813	5	10.71	28.56	0
814	5	12.495	30.345	0
815	3	12.495	28.56	1.785
816	5	10.71	30.345	1.785
817	2	14.28	28.56	0
818	4	16.065	30.345	0
819	2	16.065	28.56	1.785
820	5	14.28	30.345	1.785
821	2	17.85	28.56	0
822	3	19.635	30.345	0
823	3	19.635	28.56	1.785
824	4	17.85	30.345	1.785
825	4	21.42	28.56	0
826	3	23.205	30.345	0
827	5	23.205	28.56	1.785
828	5	21.42	30.345	1.785
829	3	24.99	28.56	0
830	3	26.775	30.345	0
831	5	26.775	28.56	1.785
832	2	24.99	30.345	1.785
833	5	28.56	28.56	0
834	5	30.345	30.345	0
835	3	30.345	28.56	1.785
836	3	28.56	30.345	1.785
837	3	32.13	28.56	0
838	4	33.915	30.345	0
839	3	33.915	28.56	1.785
840	5	32.13	30.345	1.785
841	4	35.7	28.56	0
842	4	37.485	30.345	0
843	4	37.485	28.56	1.785
844	4	35.7	30.345	1.785
845	2	39.27	28.56	0
846	4	41.055	30.345	0
847	3	41.055	28.56	1.785
848	1	39.27	30.345	1.785
849	1	42.84	28.56	0
850	4	44.625	30.345	0
851	5	44.625	28.56	1.785
852	5	42.84	30.345	1.785
853	4	46.41	28.56	0
854	3	48.195	30.345	0
855	3	48.195	28.56	1.785
856	3	46.41	30.345	1.785
857	2	49.98	28.56	0
858	2	51.765	30.345	0
859	5	51.765	28.56	1.785
860	3	49.98	30.345	1.785
861	2	53.55	28.56	0
862	3	55.335	30.345	0
863	4	55.335	28.56	1.785
864	2	53.55	30.345	1.785
865	1	57.12	28.56	0
866	2	58.905	30.345	0
867	3	58.905	28.56	1.785
868	4	57.12	30.345	1.785
869	4	60.69	28.56	0
870	4	62.475	30.345	0
871	2	62.475	28.56	1.785
872	4	60.69	30.345	1.785
873	4	64.26	28.56	0
874	4	66.045	30.345	0
875	3	66.045	28.56	1.785
876	3	64.26	30.345	1.785
877	2	67.83	28.56	0
878	4	69.615	30.345	0
879	4	69.615	28.56	1.785
880	4	67.83	30.345	1.785
881	2	71.4	28.56	0
882	1	73.185	30.345	0
883	5	73.185	28.56	1.785
884	4	71.4	30.345	1.785
885	3	74.97	28.56	0
886	4	76.755	30.345	0
887	4	76.755	28.56	1.785
888	3	74.97	30.345	1.785
889	5	78.54	28.56	0
890	2	80.325	30.345	0
891	5	80.325	28.56	1.785
892	3	78.54	30.345	1.785
893	3	82.11	28.56	0
894	3	83.895	30.345	0
895	5	83.895	28.56	1.785
896	4	82.11	30.345	1.785
897	5	85.68	28.56	0
898	3	87.465	30.345	0
899	3	87.465	28.56	1.785
900	4	85.68	30.345	1.785
901	3	0	32.13	0
902	2	1.785	33.915	0
903	3	1.785	32.13	1.785
904	1	0	33.915	1.785
905	5	3.57	32.13	0
906	2	5.355	33.915	0
907	2	5.355	32.13	1.785
908	4	3.57	33.915	1.785
909	3	7.14	32.13	0
910	3	8.925	33.915	0
911	3	8.925	32.13	1.785
912	4	7.14	33.915	1.785
913	2	10.71	32.13	0
914	5	12.495	33.915	0
915	3	12.495	32.13	1.785
916	2	10.71	33.915	1.785
917	5	14.28	32.13	0
918	5	16.065	33.915	0
919	3	16.065	32.13	1.785
920	2	14.28	33.915	1.785
921	3	17.85	32.13	0
922	4	19.635	33.915	0
923	3	19.635	32.13	1.785
924	1	17.85	33.915	1.785
925	3	21.42	32.13	0
926	3	23.205	33.915	0
927	5	23.205	32.13	1.785
928	2	21.42	33.915	1.785
929	3	24.99	32.13	0
930	3	26.775	33.915	0
931	4	26.775	32.13	1.785
932	5	24.99	33.915	1.785
933	4	28.56	32.13	0
934	4	30.345	33.915	0
935	5	30.345	32.13	1.785
936	3	28.56	33.915	1.785
937	4	32.13	32.13	0
938	5	33.915	33.915	0
939	5	33.915	32.13	1.785
940	4	32.13	33.915	1.785
941	5	35.7	32.13	0
942	4	37.485	33.915	0
943	4	37.485	32.13	1.785
944	2	35.7	33.915	1.785
945	4	39.27	32.13	0
946	2	41.055	33.915	0
947	1	41.055	32.13	1.785
948	5	39.27	33.915	1.785
949	5	42.84	32.13	0
950	2	44.625	33.915	0
951	3	44.625	32.13	1.785
952	4	42.84	33.915	1.785
953	5	46.41	32.13	0
954	3	48.195	33.915	0
955	3	48.195	32.13	1.785
956	5	46.41	33.915	1.785
957	1	49.98	32.13	0
958	2	51.765	33.915	0
959	2	51.765	32.13	1.785
960	3	49.98	33.915	1.785
961	3	53.55	32.13	0
962	4	55.335	33.915	0
963	4	55.335	32.13	1.785
964	5	53.55	33.915	1.785
965	3	57.12	32.13	0
966	5	58.905	33.915	0
967	2	58.905	32.13	1.785
968	5	57.12	33.915	1.785
969	3	60.69	32.13	0
970	5	62.475	33.915	0
971	2	62.475	32.13	1.785
972	3	60.69	33.915	1.785
973	4	64.26	32.13	0
974	3	66.045	33.915	0
975	2	66.045	32.13	1.785
976	2	64.26	33.915	1.785
977	2	67.83	32.13	0
978	5	69.615	33.915	0
979	5	69.615	32.13	1.785
980	5	67.83	33.915	1.785
981	2	71.4	32.13	0
982	3	73.185	33.915	0
983	2	73.185	32.13	1.785
984	2	71.4	33.915	1.785
985	4	74.97	32.13	0
986	5	76.755	33.915	0
987	2	76.755	32.13	1.785
988	2	74.97	33.915	1.785
989	2	78.54	32.13	0
990	3	80.325	33.915	0
991	3	80.325	32.13	1.785
992	5	78.54	33.915	1.785
993	4	82.11	32.13	0
994	3	83.895	33.915	0
995	4	83.895	32.13	1.785
996	2	82.11	33.915	1.785
997	1	85.68	32.13	0
998	4	87.465	33.915	0
999	4	87.465	32.13	1.785
1000	5	85.68	33.915	1.785
1001	5	0	35.7	0
1002	2	1.785	37.485	0
1003	4	1.785	35.7	1.785
1004	1	0	37.485	1.785
1005	2	3.57	35.7	0
1006	4	5.355	37.485	0
1007	3	5.355	35.7	1.785
1008	3	3.57	37.485	1.785
1009	2	7.14	35.7	0
1010	3	8.925	37.485	0
1011	2	8.925	35.7	1.785
1012	2	7.14	37.485	1.785
1013	2	10.71	35.7	0
1014	3	12.495	37.485	0
1015	5	12.495	35.7	1.785
1016	3	10.71	37.485	1.785
1017	3	14.28	35.7	0
1018	4	16.065	37.485	0
1019	4	16.065	35.7	1.785
1020	2	14.28	37.485	1.785
1021	3	17.85	35.7	0
1022	5	19.635	37.485	0
1023	2	19.635	35.7	1.785
1024	4	17.85	37.485	1.785
1025	4	21.42	35.7	0
1026	1	23.205	37.485	0
1027	3	23.205	35.7	1.785
1028	4	21.42	37.485	1.785
1029	3	24.99	35.7	0
1030	4	26.775	37.485	0
1031	4	26.775	35.7	1.785
1032	2	24.99	37.485	1.785
1033	3	28.56	35.7	0
1034	3	30.345	37.485	0
1035	1	30.345	35.7	1.785
1036	4	28.56	37.485	1.785
1037	3	32.13	35.7	0
1038	2	33.915	37.485	0
1039	2	33.915	35.7	1.785
1040	2	32.13	37.485	1.785
1041	4	35.7	35.7	0
1042	4	37.485	37.485	0
1043	5	37.485	35.7	1.785
1044	1	35.7	37.485	1.785
1045	2	39.27	35.7	0
1046	5	41.055	37.485	0
1047	2	41.055	35.7	1.785
1048	5	39.27	37.485	1.785
1049	3	42.84	35.7	0
1050	3	44.625	37.485	0
1051	5	44.625	35.7	1.785
1052	2	42.84	37.485	1.785
1053	3	46.41	35.7	0
1054	3	48.195	37.485	0
1055	5	48.195	35.7	1.785
1056	3	46.41	37.485	1.785
1057	5	49.98	35.7	0
1058	5	51.765	37.485	0
1059	5	51.765	35.7	1.785
1060	2	49.98	37.485	1.785
1061	4	53.55	35.7	0
1062	3	55.335	37.485	0
1063	3	55.335	35.7	1.785
1064	5	53.55	37.485	1.785
1065	5	57.12	35.7	0
1066	4	58.905	37.485	0
1067	4	58.905	35.7	1.785
1068	4	57.12	37.485	1.785
1069	5	60.69	35.7	0
1070	4	62.475	37.485	0
1071	4	62.475	35.7	1.785
1072	2	60.69	37.485	1.785
1073	3	64.26	35.7	0
1074	4	66.045	37.485	0
1075	5	66.045	35.7	1.785
1076	4	64.26	37.485	1.785
1077	2	67.83	35.7	0
1078	4	69.615	37.485	0
1079	5	69.615	35.7	1.785
1080	2	67.83	37.485	1.785
1081	3	71.4	35.7	0
1082	5	73.185	37.485	0
1083	5	73.185	35.7	1.785
1084	4	71.4	37.485	1.785
1085	3	74.97	35.7	0
1086	5	76.755	37.485	0
1087	5	76.755	35.7	1.785
1088	5	74.97	37.485	1.785
1089	3	78.54	35.7	0
1090	3	80.325	37.485	0
1091	4	80.325	35.7	1.785
1092	2	78.54	37.485	1.785
1093	5	82.11	35.7	0
1094	2	83.895	37.485	0
1095	2	83.895	35.7	1.785
1096	3	82.11	37.485	1.785
1097	3	85.68	35.7	0
1098	5	87.465	37.485	0
1099	2	87.465	35.7	1.785
1100	5	85.68	37.485	1.785
1101	2	0	39.27	0
1102	2	1.785	41.055	0
1103	2	1.785	39.27	1.785
1104	2	0	41.055	1.785
1105	4	3.57	39.27	0
1106	5	5.355	41.055	0
1107	3	5.355	39.27	1.785
1108	1	3.57	41.055	1.785
1109	1	7.14	39.27	0
1110	4	8.925	41.055	0
1111	2	8.925	39.27	1.785
1112	4	7.14	41.055	1.785
1113	5	10.71	39.27	0
1114	5	12.495	41.055	0
1115	1	12.495	39.27	1.785
1116	4	10.71	41.055	1.785
1117	5	14.28	39.27	0
1118	3	16.065	41.055	0
1119	1	16.065	39.27	1.785
1120	2	14.28	41.055	1.785
1121	4	17.85	39.27	0
1122	3	19.635	41.055	0
1123	5	19.635	39.27	1.785
1124	2	17.85	41.055	1.785
1125	5	21.42	39.27	0
1126	5	23.205	41.055	0
1127	2	23.205	39.27	1.785
1128	3	21.42	41.055	1.785
1129	4	24.99	39.27	0
1130	5	26.775	41.055	0
1131	4	26.775	39.27	1.785
1132	4	24.99	41.055	1.785
1133	2	28.56	39.27	0
1134	2	30.345	41.055	0
1135	5	30.345	39.27	1.785
1136	4	28.56	41.055	1.785
1137	4	32.13	39.27	0
1138	1	33.915	41.055	0
1139	5	33.915	39.27	1.785
1140	2	32.13	41.055	1.785
1141	5	35.7	39.27	0
1142	2	37.485	41.055	0
1143	3	37.485	39.27	1.785
1144	1	35.7	41.055	1.785
1145	4	39.27	39.27	0
1146	4	41.055	41.055	0
1147	4	41.055	39.27	1.785
1148	3	39.27	41.055	1.785
1149	4	42.84	39.27	0
1150	5	44.625	41.055	0
1151	3	44.625	39.27	1.785
1152	3	42.84	41.055	1.785
1153	3	46.41	39.27	0
1154	2	48.195	41.055	0
1155	2	48.195	39.27	1.785
1156	2	46.41	41.055	1.785
1157	2	49.98	39.27	0
1158	2	51.765	41.055	0
1159	2	51.765	39.27	1.785
1160	3	49.98	41.055	1.785
1161	3	53.55	39.27	0
1162	4	55.335	41.055	0
1163	3	55.335	39.27	1.785
1164	3	53.55	41.055	1.785
1165	2	57.12	39.27	0
1166	2	58.905	41.055	0
1167	2	58.905	39.27	1.785
1168	5	57.12	41.055	1.785
1169	1	60.69	39.27	0
1170	3	62.475	41.055	0
1171	2	62.475	39.27	1.785
1172	4	60.69	41.055	1.785
1173	4	64.26	39.27	0
1174	4	66.045	41.055	0
1175	4	66.045	39.27	1.785
1176	5	64.26	41.055	1.785
1177	3	67.83	39.27	0
1178	3	69.615	41.055	0
1179	3	69.615	39.27	1.785
1180	2	67.83	41.055	1.785
1181	2	71.4	39.27	0
1182	2	73.185	41.055	0
1183	4	73.185	39.27	1.785
1184	4	71.4	41.055	1.785
1185	1	74.97	39.27	0
1186	2	76.755	41.055	0
1187	2	76.755	39.27	1.785
1188	5	74.97	41.055	1.785
1189	4	78.54	39.27	0
1190	3	80.325	41.055	0
1191	2	80.325	39.27	1.785
1192	4	78.54	41.055	1.785
1193	2	82.11	39.27	0
1194	3	83.895	41.055	0
1195	5	83.895	39.27	1.785
1196	2	82.11	41.055	1.785
1197	2	85.68	39.27	0
1198	5	87.465	41.055	0
1199	4	87.465	39.27	1.785
1200	4	85.68	41.055	1.785
1201	3	0	42.84	0
1202	4	1.785	44.625	0
1203	2	1.785	42.84	1.785
1204	5	0	44.625	1.785
1205	4	3.57	42.84	0
1206	5	5.355	44.625	0
1207	3	5.355	42.84	1.785
1208	5	3.57	44.625	1.785
1209	4	7.14	42.84	0
1210	2	8.925	44.625	0
1211	3	8.925	42.84	1.785
1212	3	7.14	44.625	1.785
1213	4	10.71	42.84	0
1214	4	12.495	44.625	0
1215	3	12.495	42.84	1.785
1216	3	10.71	44.625	1.785
1217	4	14.28	42.84	0
1218	5	16.065	44.625	0
1219	3	16.065	42.84	1.785
1220	5	14.28	44.625	1.785
1221	2	17.85	42.84	0
1222	5	19.635	44.625	0
1223	2	19.635	42.84	1.785
1224	5	17.85	44.625	1.785
1225	3	21.42	42.84	0
1226	5	23.205	44.625	0
1227	2	23.205	42.84	1.785
1228	3	21.42	44.625	1.785
1229	1	24.99	42.84	0
1230	2	26.775	44.625	0
1231	5	26.775	42.84	1.785
1232	5	24.99	44.625	1.785
1233	4	28.56	42.84	0
1234	4	30.345	44.625	0
1235	3	30.345	42.84	1.785
1236	4	28.56	44.625	1.785
1237	2	32.13	42.84	0
1238	3	33.915	44.625	0
1239	2	33.915	42.84	1.785
1240	2	32.13	44.625	1.785
1241	5	35.7	42.84	0
1242	4	37.485	44.625	0
1243	2	37.485	42.84	1.785
1244	3	35.7	44.625	1.785
1245	5	39.27	42.84	0
1246	2	41.055	44.625	0
1247	5	41.055	42.84	1.785
1248	3	39.27	44.625	1.785
1249	3	42.84	42.84	0
1250	3	44.625	44.625	0
1251	2	44.625	42.84	1.785
1252	3	42.84	44.625	1.785
1253	2	46.41	42.84	0
1254	4	48.195	44.625	0
1255	5	48.195	42.84	1.785
1256	4	46.41	44.625	1.785
1257	2	49.98	42.84	0
1258	5	51.765	44.625	0
1259	3	51.765	42.84	1.785
1260	5	49.98	44.625	1.785
1261	5	53.55	42.84	0
1262	1	55.335	44.625	0
1263	4	55.335	42.84	1.785
1264	3	53.55	44.625	1.785
1265	5	57.12	42.84	0
1266	2	58.905	44.625	0